# vtk DataFile Version 4.1
vtk output
ASCII
DATASET POLYDATA
POINTS 7 float
1.362140 1.037780 -0.970195
1.468330 1.092350 -1.563440
0.920266 0.272724 -1.243850
1.087660 1.341370 -0.386620
1.572800 1.433990 -1.083310
1.581520 0.675434 -1.138010
1.826150 1.210020 -0.707695
VERTICES 7 14
1 0
1 1
1 2
1 3
1 4
1 5
1 6
POINT_DATA 7
FIELD FieldData 2
LAT 1 7 float
1.000000
1.000000
1.000000
1.000000
1.000000
1.000000
1.000000
METADATA
INFORMATION 0

VentricleID 1 7 float
1
1
1
2
2
2
2
METADATA
INFORMATION 0

